 Program PWSCF v.7.2 starts
 convergence has been achieved
 !    total energy              =     -15.43210000 Ry
 Total force =     0.000123
 End of BFGS Geometry Optimization
 JOB DONE.
