 Program PWSCF v.7.2 starts
     convergence NOT achieved after 100 iterations
 !    total energy              =     -15.10000000 Ry
